96
Atoms. Timestep: 0
1 5.5064 8.2596 7.6424
1 0 8.2596 7.6424
1 5.5064 0 4.88901
1 2.7532 5.5064 7.6424
1 8.2596 5.5064 7.6424
1 8.2596 2.7532 4.88901
1 0 0 4.88901
1 8.2596 8.2596 4.88901
1 2.7532 2.7532 4.88901
1 0 5.5064 4.88901
2 0 2.7532 7.6424
2 8.2596 0 7.6424
2 2.7532 8.2596 4.88901
2 5.5064 2.7532 7.6424
2 2.7532 0 7.6424
3 2.7532 5.5064 2.13582
3 0 8.2596 2.13582
3 5.5064 8.2596 2.13582
3 8.2596 5.5064 2.13582
3 8.2596 0 2.13582
3 2.7532 2.7532 10.3956
3 0 0 10.3956
3 5.5064 2.7532 2.13582
4 5.5064 5.5064 4.88901
5 8.2596 8.2596 10.3956
5 5.5064 5.5064 10.3956
5 2.7532 0 2.13582
5 5.5064 0 10.3956
5 0 2.7532 2.13582
5 2.7532 8.2596 10.3956
5 8.2596 2.7532 10.3956
5 0 5.5064 10.3956
6 7.64233 2.13593 7.02503
6 3.37047 4.88913 5.50638
6 10.3955 2.13593 5.50638
6 6.12367 3.37047 9.77821
6 6.12367 4.88913 7.02503
6 7.64233 0.617267 9.77821
6 8.87687 3.37047 8.25957
6 0.617267 10.3955 7.02503
6 8.87687 4.88913 5.50638
6 6.12367 8.87687 9.77821
6 7.64233 7.64233 7.02503
6 8.87687 8.87687 8.25957
6 10.3955 7.64233 5.50638
6 6.12367 10.3955 7.02503
6 7.64233 6.12367 9.77821
6 10.3955 0.617267 8.25957
6 3.37047 10.3955 5.50638
6 0.617267 8.87687 9.77821
6 2.13593 7.64233 7.02503
6 3.37047 8.87687 8.25957
6 4.88913 7.64233 5.50638
6 4.88913 0.617267 8.25957
6 2.13593 6.12367 9.77821
6 4.88913 6.12367 8.25957
6 0.617267 3.37047 9.77821
6 8.87687 10.3955 0
6 3.37047 3.37047 8.25957
6 10.3955 0.617267 2.75319
6 6.12367 3.37047 4.27184
6 7.64233 2.13593 1.51865
6 8.87687 3.37047 2.75319
6 10.3955 2.13593 0
6 6.12367 4.88913 1.51865
6 7.64233 0.617267 4.27184
6 3.37047 4.88913 0
6 4.88913 0.617267 2.75319
6 0.617267 3.37047 4.27184
6 2.13593 2.13593 1.51865
6 3.37047 3.37047 2.75319
6 4.88913 2.13593 0
6 0.617267 4.88913 1.51865
6 2.13593 0.617267 4.27184
6 8.87687 4.88913 0
6 2.13593 6.12367 4.27184
6 0.617267 10.3955 1.51865
6 4.88913 7.64233 0
6 4.88913 2.13593 5.50638
6 0.617267 4.88913 7.02503
6 2.13593 0.617267 9.77821
6 10.3955 6.12367 8.25957
6 10.3955 6.12367 2.75319
6 6.12367 8.87687 4.27184
6 7.64233 7.64233 1.51865
6 2.13593 2.13593 7.02503
6 8.87687 8.87687 2.75319
6 6.12367 10.3955 1.51865
6 7.64233 6.12367 4.27184
6 3.37047 10.3955 0
6 4.88913 6.12367 2.75319
6 0.617267 8.87687 4.27184
6 2.13593 7.64233 1.51865
6 3.37047 8.87687 2.75319
6 10.3955 7.64233 0
6 8.87687 10.3955 5.50638
96
Atoms. Timestep: 100
1 6.14665 8.0356 8.09147
1 0.256237 8.23614 7.64509
1 5.78591 0.6407 5.43577
1 2.77477 5.73496 7.20777
1 7.78963 5.89805 8.91551
1 8.10544 2.26926 4.79668
1 10.7389 0.884175 4.18689
1 8.41067 8.07101 5.01678
1 2.88515 3.16077 4.94157
1 10.5252 5.548 5.06266
2 0.0698742 3.19576 7.78231
2 8.32635 0.364685 7.86533
2 2.51924 8.86833 5.19827
2 5.83344 3.08389 8.23506
2 2.5735 0.161501 7.57226
3 2.34478 5.25669 2.01435
3 10.8189 8.60853 2.4241
3 5.48741 7.63197 1.56307
3 8.64901 5.43826 1.42983
3 7.856 10.357 1.5578
3 2.56591 2.1088 10.8623
3 0.782811 0.573253 9.72159
3 5.24899 2.18885 1.94791
4 6.2058 5.2017 5.14647
5 8.57033 7.9047 10.3891
5 5.61051 4.85048 9.241
5 2.98431 0.316 2.35283
5 4.7268 10.0802 9.93576
5 0.149609 3.06946 2.11088
5 1.63257 7.98699 9.1872
5 8.01642 3.97187 11.098
5 0.0579561 4.9958 10.4631
6 7.53262 2.26125 7.03751
6 4.04101 5.27861 5.4054
6 10.2672 2.28452 5.37024
6 6.56184 2.90808 10.4798
6 6.52154 4.91929 7.27082
6 6.99495 10.6371 9.94137
6 9.0371 4.55302 9.41683
6 0.640664 10.4456 6.77751
6 9.03433 4.05792 5.47875
6 6.51416 8.79324 10.4124
6 7.90583 7.18054 7.14076
6 9.58544 9.20381 8.96395
6 10.1532 7.56203 6.20676
6 6.4609 9.99747 7.47586
6 6.81645 6.33395 10.8734
6 10.0156 1.27622 8.14634
6 3.66853 10.903 5.77414
6 0.0693506 9.18418 9.96403
6 2.05903 7.57304 6.77341
6 3.35211 9.82636 8.80482
6 4.87343 8.71201 5.638
6 4.35791 1.79038 8.77036
6 3.0242 6.01003 9.77044
6 4.46973 7.05964 8.79104
6 0.542124 2.59375 9.94715
6 9.53523 9.8224 20.1197
6 3.71797 3.68617 8.57091
6 9.65648 0.650469 2.41574
6 6.0151 2.95416 4.16355
6 6.68992 1.27686 0.749161
6 8.73822 3.41875 1.73384
6 0.471506 3.44588 18.6178
6 6.84823 3.97659 1.09905
6 7.74486 0.374158 4.84976
6 3.84658 5.82763 20.3938
6 6.35466 10.6755 3.50935
6 1.02323 3.52627 4.07075
6 1.83964 1.98651 1.45916
6 3.69564 3.40903 2.62914
6 5.11521 2.00486 20.1922
6 0.595309 4.84592 0.576258
6 1.67964 1.12373 4.19179
6 8.66015 5.2939 19.6752
6 2.10648 6.15826 4.2287
6 0.149315 10.6703 1.31252
6 3.49054 7.69131 0.182243
6 4.86598 2.38962 5.77151
6 0.804439 4.99849 6.76776
6 2.24438 0.10722 11.1289
6 10.5498 6.14031 8.65659
6 10.0294 6.52377 3.09526
6 6.0272 7.61034 4.5404
6 7.3234 6.742 0.726589
6 1.79818 2.13661 7.12286
6 8.79378 8.80418 2.90377
6 6.87785 8.92947 0.200674
6 7.8832 5.41143 3.77815
6 4.16657 10.7038 0.907206
6 4.5936 5.63411 2.11081
6 0.750171 8.90927 4.22892
6 1.47717 7.4018 0.770871
6 2.56815 9.36883 3.1118
6 10.6898 7.74613 20.3888
6 8.90582 9.95555 5.79777
96
Atoms. Timestep: 200
1 6.19535 8.11727 8.86966
1 9.95027 8.53204 7.75919
1 5.67887 1.1203 4.41609
1 3.27249 5.89078 7.64373
1 7.73725 5.83935 9.81066
1 7.93476 2.52406 5.47173
1 10.4155 1.59672 3.2102
1 8.17478 7.898 5.06218
1 2.69399 3.64825 4.57429
1 10.9227 5.67897 5.01653
2 10.8889 3.36972 8.49527
2 7.48683 0.0556059 9.02182
2 3.1451 9.54626 6.25074
2 5.69486 2.78054 8.62826
2 2.4453 0.753001 7.10759
3 2.25014 4.8706 1.66656
3 9.91033 8.7218 2.51761
3 5.18078 7.18827 20.0341
3 8.56226 4.67213 0.382261
3 8.25757 9.5434 1.08976
3 2.34837 1.00444 11.7484
3 1.3017 0.637623 9.42696
3 5.51851 2.46876 1.46365
4 7.2442 4.95115 4.31685
5 9.0649 7.72217 10.8134
5 5.47198 4.83893 9.87232
5 3.3214 1.17589 2.23463
5 4.92643 9.47562 10.1344
5 0.358344 3.28241 1.84792
5 1.98669 7.21369 9.04502
5 7.72083 4.67004 11.8263
5 0.63308 4.74757 9.91895
6 7.72783 1.7942 7.5985
6 3.32078 5.2383 5.76972
6 9.89035 1.67589 5.37321
6 6.70882 3.20308 10.7726
6 6.65819 4.55508 8.23248
6 6.55428 0.775349 10.6141
6 9.36099 4.41725 10.6683
6 1.12373 10.6395 6.19247
6 8.81253 4.41811 5.34127
6 7.02359 8.37983 11.1675
6 7.50138 7.21738 7.87204
6 9.54959 9.54279 9.79388
6 9.59614 6.69762 6.65446
6 5.65556 10.2223 7.9962
6 5.85664 6.66831 11.9181
6 10.6172 1.38644 9.29125
6 4.53557 0.561729 6.36513
6 1.28289 10.4746 11.3595
6 2.28035 7.50263 6.70319
6 2.71231 9.06886 10.1801
6 4.83812 8.40965 5.66248
6 4.22017 1.4505 9.87435
6 2.33923 5.53945 11.0259
6 4.11284 7.76827 9.18776
6 1.74532 2.76281 10.8459
6 9.65333 9.9288 20.017
6 3.54746 4.67678 9.34028
6 8.75121 0.485245 2.16066
6 5.97899 3.21558 3.72804
6 6.54416 9.88356 19.564
6 9.58586 2.69817 0.322089
6 1.6647 5.33643 17.6466
6 7.56165 2.67016 0.805374
6 7.43699 0.423667 5.13233
6 4.30937 5.11622 19.4914
6 5.88969 10.1018 3.4691
6 0.688679 4.19383 3.84518
6 1.4526 2.08441 0.234762
6 3.66354 2.9445 1.32062
6 4.76681 1.77687 19.5405
6 1.739 3.58996 19.1592
6 1.96013 1.71852 3.98033
6 8.35065 5.05301 18.3832
6 2.7871 5.60631 3.59336
6 0.297323 10.7079 0.16838
6 3.48078 8.55569 19.695
6 4.63695 2.51629 7.08731
6 0.985961 5.01805 7.31532
6 1.85787 10.7568 13.4525
6 10.8978 7.99044 10.6422
6 9.76278 6.82543 3.35728
6 6.01869 6.59511 4.71212
6 6.98249 5.55989 19.7175
6 1.45102 2.70625 6.8448
6 7.80105 9.12359 3.318
6 7.07979 8.21404 20.2214
6 7.72275 5.48225 2.29078
6 4.39001 0.449542 0.480228
6 4.32597 5.97715 1.35827
6 0.966659 8.88819 3.25259
6 10.9755 7.84943 19.8656
6 2.81605 9.88414 3.88286
6 0.338197 8.41847 18.1697
6 9.22966 9.41579 6.11726
96
Atoms. Timestep: 300
1 6.35657 8.53945 9.73523
1 8.468 8.41118 8.2063
1 5.75412 1.63718 3.45824
1 3.2329 6.11893 7.61655
1 8.73943 5.44758 9.79817
1 8.10458 2.48719 6.29775
1 10.1823 1.90054 2.6863
1 8.67426 7.28434 4.78524
1 1.73221 4.08924 3.83891
1 10.4436 5.53996 5.46497
2 10.4626 3.35476 9.26693
2 6.62183 0.171008 9.85539
2 3.49179 9.54907 5.81694
2 5.72401 2.10403 9.80341
2 2.86706 1.68177 6.87606
3 2.61766 5.14107 1.7664
3 9.83221 9.19487 3.31851
3 4.88949 6.94295 18.3153
3 8.29059 3.43315 19.687
3 8.18694 9.56915 0.92145
3 2.89971 1.14839 12.9407
3 1.20042 1.08972 10.822
3 5.7267 2.21564 1.03185
4 7.81305 5.07676 3.51325
5 9.25684 7.45609 11.4194
5 4.85741 4.57677 11.2256
5 3.66697 1.41283 2.19558
5 4.72745 9.96681 11.0606
5 0.571283 3.10861 0.833046
5 1.88574 7.29398 9.64297
5 7.64223 5.51737 12.2025
5 1.32247 5.01016 10.0882
6 7.36013 2.04917 8.27326
6 3.4783 4.82324 5.53502
6 9.06947 1.19582 4.63935
6 6.91136 3.50165 12.3301
6 6.54078 4.82414 9.29868
6 6.17952 0.888723 11.7604
6 10.5068 5.33055 10.8441
6 1.883 10.917 6.61051
6 8.84204 4.1814 5.26735
6 7.20234 7.58451 11.5915
6 7.16337 6.67438 8.95322
6 9.98274 9.01456 10.2669
6 9.8188 7.29762 6.9484
6 5.20753 9.84846 8.70222
6 5.49997 6.30479 12.6835
6 10.0753 1.52139 10.0577
6 4.27292 0.576239 5.20797
6 0.985471 0.173666 12.7618
6 2.29995 8.18891 7.43277
6 3.76124 8.04175 10.6692
6 5.09576 7.73276 5.5261
6 3.21739 0.608682 11.1274
6 1.71779 4.04104 12.5844
6 4.75748 7.16414 8.88781
6 2.52346 2.9499 11.3677
6 9.89565 9.86874 19.4815
6 3.47411 5.64567 9.95153
6 9.68341 10.7835 2.1114
6 6.35054 3.69941 2.876
6 6.38201 8.13576 18.1596
6 10.6016 3.90213 19.2885
6 2.67696 5.91532 17.2879
6 7.72633 1.5384 0.308484
6 6.95059 0.844559 4.94327
6 3.72737 4.99767 18.7219
6 4.8245 10.9539 2.45783
6 0.0811264 4.7012 2.66749
6 0.702441 1.50996 19.7339
6 3.51398 3.1014 0.646715
6 5.35974 1.15682 19.4584
6 2.62617 4.27416 16.3293
6 1.2941 2.26969 2.6449
6 8.5986 4.48905 17.6728
6 3.82142 5.25207 3.61668
6 1.26744 10.5424 19.7088
6 4.29262 9.09208 18.7965
6 4.68972 3.1462 7.53883
6 0.025199 5.44174 7.63438
6 1.78399 0.404805 14.4658
6 0.689535 8.67126 11.4543
6 10.4547 6.92568 3.58931
6 6.55437 6.20313 5.10483
6 6.74623 4.74717 17.7751
6 0.783019 2.59464 7.69912
6 7.63951 8.25911 2.52967
6 6.67859 8.36155 0.156226
6 8.40746 4.60235 1.08723
6 3.91417 10.893 0.306065
6 2.79158 6.28662 20.3695
6 0.84782 9.53483 2.35757
6 9.82553 8.50353 17.5653
6 2.02211 9.37085 3.93112
6 1.04061 8.29187 17.5049
6 9.09142 8.97073 6.33693
96
Atoms. Timestep: 400
1 6.1885 7.99457 10.4452
1 8.26543 8.84405 8.22405
1 5.45562 1.79767 3.34539
1 3.30029 6.23274 7.46978
1 8.53576 4.91504 9.68249
1 8.38985 1.86011 6.67067
1 10.3537 1.49292 2.84244
1 8.59457 7.60708 4.81837
1 1.32198 4.27435 3.63148
1 9.65237 5.48294 5.89982
2 10.6495 3.59793 9.55922
2 6.60934 0.289648 10.2018
2 3.34397 8.98485 5.7494
2 5.68387 2.44271 10.0422
2 3.71096 2.75818 6.25153
3 2.69564 5.22894 1.45957
3 10.0607 9.13957 3.61584
3 4.30799 6.46028 17.2029
3 8.83049 2.99961 19.5077
3 9.00647 9.24746 0.867452
3 2.1348 1.38065 13.6469
3 0.653963 2.17872 12.1344
3 5.55039 1.9651 0.75662
4 8.22044 5.31782 2.89791
5 9.6157 7.19949 11.6239
5 5.2013 3.86959 12.0159
5 2.88255 2.06783 2.09603
5 5.54716 9.64408 12.1988
5 0.390981 2.83537 19.5307
5 2.68385 8.07727 10.1373
5 7.48397 6.01815 12.1752
5 1.58173 4.34583 10.7714
6 7.82315 1.31461 8.55155
6 2.14324 4.33391 6.34243
6 8.88227 1.66094 4.39092
6 6.44495 4.15105 13.806
6 7.52769 3.9071 11.4765
6 5.94044 0.95885 12.103
6 10.3208 5.02659 11.1744
6 3.22578 10.559 7.33386
6 8.96813 4.15826 4.64922
6 6.83917 8.25322 12.56
6 7.66316 6.80112 9.27499
6 10.1314 8.3871 9.52621
6 9.52692 7.54019 6.6745
6 5.61153 10.2205 8.93181
6 5.92755 6.5785 13.3231
6 10.0294 2.04659 10.6637
6 3.39149 1.71568 4.47213
6 0.0750381 0.879893 13.9263
6 2.39109 8.63128 7.6974
6 4.26878 8.11467 11.3445
6 5.17391 8.22435 4.94657
6 1.93955 0.471467 11.6696
6 1.52145 3.04171 14.57
6 5.31424 6.67134 8.12394
6 2.62005 3.25319 12.0987
6 9.21795 8.46021 19.2678
6 2.74443 5.81344 9.4356
6 9.81819 0.247891 1.2432
6 6.78914 2.99396 2.10273
6 6.57107 6.77765 16.9112
6 10.3521 4.59558 19.0061
6 3.30658 6.42545 15.0446
6 8.18154 1.16779 19.4306
6 6.53636 1.8069 5.02034
6 3.65926 5.83711 19.3052
6 5.4989 0.389251 1.93773
6 0.740744 5.67021 2.11436
6 0.40274 0.853942 18.6725
6 4.39355 3.84434 0.893779
6 5.59975 0.20117 19.6269
6 3.00175 5.48323 13.3862
6 0.889336 2.60658 2.05909
6 8.37522 3.64721 17.4743
6 3.36257 5.04163 3.59572
6 1.303 10.0304 18.4273
6 5.1936 8.3014 17.4763
6 3.76445 2.65487 8.64287
6 9.90635 4.72236 7.90766
6 2.83222 1.61653 16.5441
6 0.486865 7.86815 10.8834
6 10.8685 7.112 4.51376
6 6.73989 6.86557 4.1213
6 6.7255 4.35278 16.2417
6 1.00596 2.05074 9.15605
6 8.97618 7.44511 2.14894
6 6.93406 9.3683 0.0705088
6 8.55395 3.90955 1.22156
6 3.76396 10.8814 20.2131
6 1.63551 5.50125 19.8776
6 0.32457 10.1292 2.1839
6 10.0136 9.89565 16.1802
6 1.91112 8.29879 4.27216
6 10.9675 8.42607 17.2885
6 8.1527 9.22712 6.11604
96
Atoms. Timestep: 500
1 5.58915 7.75343 11.0309
1 8.0702 9.05779 8.40419
1 5.25289 2.38033 3.9069
1 3.08526 6.15334 7.77881
1 8.66682 4.81588 10.2859
1 8.12147 1.20959 6.78032
1 10.1454 1.06526 3.06077
1 8.32962 7.54487 4.43848
1 1.61283 4.20852 3.05375
1 9.29309 5.82067 6.2791
2 10.3191 3.10168 9.58615
2 7.04861 10.8789 10.5838
2 3.67513 8.23511 5.77805
2 6.37001 2.37371 9.95119
2 4.05565 3.95908 6.53791
3 2.5765 4.98999 0.922439
3 0.0138067 8.37717 3.20585
3 3.82256 6.10031 16.3296
3 9.23056 3.34936 19.4439
3 9.47354 8.96481 0.464082
3 1.91205 1.77287 15.1095
3 0.395558 2.68849 12.4299
3 5.09934 1.1037 0.848085
4 8.23833 5.60183 2.31909
5 9.94576 7.1035 10.8594
5 5.53177 2.84278 12.3657
5 2.85999 2.85355 1.89179
5 6.17898 10.1709 12.5403
5 10.8871 2.68771 18.0058
5 3.02532 7.9575 9.97661
5 7.70334 6.62602 11.7646
5 1.89576 4.20464 11.0248
6 7.68624 1.45975 8.75997
6 2.09393 4.72254 7.17155
6 8.85875 1.07096 4.68508
6 5.27686 4.22602 14.3163
6 7.43848 3.63628 11.2918
6 5.23988 0.820833 11.7556
6 10.7746 4.57224 11.3006
6 4.57931 9.78948 7.30851
6 9.08465 5.22771 4.36245
6 7.9773 8.9987 12.1765
6 6.9381 6.23055 9.77487
6 9.74052 8.72763 9.41182
6 8.29581 8.06211 6.59389
6 6.91122 9.02878 9.83056
6 6.05277 6.58845 13.9152
6 9.40243 2.10437 11.6318
6 3.11684 3.48775 4.47088
6 10.4936 2.21252 14.4533
6 3.16108 8.24843 7.9299
6 4.06218 9.08746 12.0454
6 5.32383 8.26039 4.1066
6 0.345576 0.491881 13.267
6 1.91329 2.79395 16.8462
6 5.16318 5.86908 7.37882
6 2.70311 2.78775 13.1519
6 9.2001 7.45335 19.3093
6 1.77463 5.8014 9.41845
6 9.66595 10.868 1.38129
6 6.52401 2.28534 1.92621
6 5.77492 5.57079 16.8133
6 10.8113 4.58533 18.75
6 4.08936 6.42028 14.0533
6 8.48523 1.05667 18.973
6 6.22666 2.51509 5.57099
6 3.36543 7.10237 17.9447
6 5.48411 0.535447 2.82712
6 1.11786 6.17101 2.46894
6 0.836298 0.368469 17.7177
6 4.34092 3.08302 0.624018
6 5.73597 10.7546 19.4638
6 3.54938 7.25744 11.5843
6 0.278357 2.56743 2.24246
6 7.29228 3.17146 18.4613
6 3.08602 6.16533 2.92571
6 0.826997 9.42441 16.9124
6 6.05424 7.42466 16.4437
6 3.13325 2.26269 7.85221
6 8.54645 3.77491 8.31473
6 3.99143 2.38161 16.6694
6 0.976166 7.38498 10.595
6 10.3533 7.85658 5.09162
6 6.51539 6.8612 3.16925
6 7.52864 3.87053 16.3104
6 2.08082 2.47549 10.0521
6 9.45585 7.51077 2.31124
6 8.05174 10.1518 20.3089
6 8.83499 4.49033 0.786809
6 3.85004 0.692605 19.6837
6 1.87961 4.53584 19.566
6 0.484055 10.1377 2.3104
6 10.1871 10.4034 15.6765
6 1.79917 7.99159 4.92627
6 9.46843 9.35744 17.3423
6 7.48904 9.96814 6.27961
96
Atoms. Timestep: 600
1 5.41192 7.80682 11.9809
1 8.38577 9.69551 8.60925
1 5.11933 2.91834 4.5579
1 3.44185 6.1303 7.92919
1 8.75402 4.96805 10.6077
1 7.16911 1.36097 6.47733
1 10.4068 1.06276 3.0703
1 8.57444 7.09218 4.17788
1 1.45465 4.69238 3.40846
1 8.84211 6.49128 6.44393
2 10.4928 2.79978 10.2861
2 7.74511 10.8695 11.019
2 4.09789 7.54452 5.86431
2 6.53724 2.37715 10.362
2 3.68847 4.17408 6.08978
3 2.64089 5.13794 0.602332
3 1.72758 7.58987 3.56294
3 4.02322 6.43925 16.057
3 8.89997 3.45033 19.6201
3 9.89208 9.27866 20.2955
3 0.435263 2.8967 15.8013
3 0.0832604 2.48881 12.7534
3 4.62914 0.856396 1.44649
4 8.07052 5.82422 2.35622
5 9.95138 7.18225 9.94239
5 5.15595 1.9222 12.8122
5 2.77755 2.57472 1.90028
5 6.56683 9.75634 13.1702
5 9.87317 2.06726 17.1677
5 2.81768 7.90797 9.96912
5 8.22537 7.42245 11.0878
5 2.33765 4.29441 11.4052
6 7.37152 0.46618 8.44926
6 1.96285 4.48921 7.05666
6 8.74326 1.18652 5.14989
6 4.00797 3.55143 13.5711
6 6.46903 3.78643 11.7746
6 5.0797 0.561658 10.5024
6 10.5042 4.53835 11.8186
6 5.58686 9.42906 6.10217
6 8.88875 5.09775 4.68166
6 9.08052 9.83104 12.2941
6 6.21686 6.0901 11.0653
6 10.3029 8.9724 8.91598
6 6.87485 6.72111 5.7861
6 6.95656 8.58794 10.1041
6 6.75804 6.60259 12.95
6 9.27389 1.06612 11.7274
6 3.36707 4.26356 4.16425
6 10.7297 4.78384 15.3868
6 3.41643 8.44166 7.98691
6 4.64433 9.81156 12.0849
6 4.99988 7.99258 3.52937
6 0.0480432 1.13166 14.9659
6 3.08068 3.99315 17.5435
6 5.08028 5.98218 6.82664
6 2.43705 2.53737 12.979
6 10.1693 7.20834 19.3724
6 2.28649 5.92717 9.70799
6 10.3508 9.97127 2.15957
6 6.37158 1.78967 2.49903
6 5.77399 4.67428 17.6331
6 10.4973 3.5189 18.4225
6 4.02991 5.44619 14.0744
6 10.2958 1.71431 19.5934
6 5.70864 3.06723 6.56994
6 2.01766 7.85954 15.7134
6 4.84056 0.946144 3.89514
6 1.06131 6.0607 1.7863
6 1.58045 10.7976 16.9567
6 3.77267 2.29459 0.148213
6 5.10907 10.6887 19.8866
6 3.10068 7.03544 12.1294
6 0.844245 2.40118 3.01168
6 6.81325 3.99972 19.5013
6 3.87879 7.15492 0.712703
6 0.691766 9.20272 16.0082
6 5.9078 6.12087 15.9103
6 2.44584 1.1145 7.92062
6 9.93238 4.20172 8.78167
6 5.95497 2.32645 15.3116
6 0.783984 8.02762 9.80302
6 9.90263 8.19383 5.08338
6 6.01741 6.52298 2.48768
6 8.24188 3.77455 17.0256
6 2.07382 2.39013 9.44769
6 8.82008 7.48033 1.38524
6 8.79746 0.0411856 19.5631
6 8.21134 4.38442 0.914807
6 4.06199 0.924249 18.7027
6 2.23702 4.27272 19.2699
6 1.20994 9.47334 2.85096
6 8.84782 9.75811 15.2858
6 2.48247 8.44578 5.21567
6 7.96444 10.1361 17.0943
6 7.36597 9.79809 5.69273
96
Atoms. Timestep: 700
1 5.09524 7.66645 12.8993
1 8.546 10.3521 8.98105
1 4.72374 2.91031 4.63061
1 3.43668 5.81955 8.13477
1 8.71588 4.71787 11.1273
1 6.63364 1.10433 6.2101
1 10.8879 0.958813 3.30935
1 8.7139 7.36623 4.28083
1 1.72549 4.46396 3.3556
1 9.44003 6.34654 6.33792
2 10.7279 3.61036 10.9217
2 7.60844 10.24 11.358
2 4.44748 8.1775 6.29577
2 7.64049 1.8891 10.3953
2 3.85898 4.51583 6.09127
3 3.06853 6.15879 0.771778
3 2.69722 6.6961 3.45438
3 3.5372 6.77359 15.6166
3 8.6287 3.02155 19.7908
3 9.67549 9.87515 0.32594
3 9.96704 4.88593 16.2565
3 10.3085 2.41388 13.4054
3 4.52101 1.1337 2.03767
4 7.58577 5.64041 2.21937
5 10.3566 7.13439 8.26683
5 5.14105 1.40316 12.8919
5 2.67325 2.58522 2.66736
5 7.20594 9.33291 13.2978
5 8.70486 0.443169 16.2858
5 2.98154 8.04276 10.114
5 7.9295 8.05234 10.829
5 2.46934 3.58294 11.6809
6 7.75711 1.14488 8.26831
6 1.94881 4.44767 6.86795
6 9.02005 1.97687 5.18602
6 3.6111 2.94564 13.1134
6 6.33247 2.82433 11.8761
6 4.93263 0.174853 11.0413
6 9.50584 4.42208 12.9738
6 5.55444 9.64175 5.25934
6 8.92128 5.10508 4.79129
6 9.73328 9.91614 12.1441
6 7.21718 5.98462 11.491
6 10.0988 9.28683 7.78367
6 6.96408 5.98973 4.09249
6 7.08699 8.90813 8.93953
6 7.54383 7.26812 12.9435
6 9.87989 0.991237 11.7656
6 3.676 4.27708 3.4501
6 0.224833 6.59127 16.0296
6 3.88203 8.33551 8.40498
6 5.37679 9.75764 12.609
6 4.45616 7.57262 1.91053
6 9.93956 2.50022 15.865
6 2.91424 5.71939 17.4592
6 5.16226 5.68366 7.44635
6 1.4684 1.62606 11.6195
6 10.8687 7.79545 20.1632
6 3.80798 5.65349 10.2872
6 10.983 10.135 1.80488
6 6.4031 1.68661 3.15343
6 5.3567 4.59992 17.6024
6 0.32116 3.22967 18.0902
6 3.37647 4.5172 14.4436
6 10.7117 1.98784 20.3759
6 4.53076 2.61164 6.77097
6 2.63539 7.53723 14.1066
6 3.43708 1.18372 3.8447
6 1.22754 6.14192 1.99941
6 2.13167 10.0899 15.9838
6 2.83639 1.77615 0.761932
6 4.3176 0.0726398 0.151443
6 2.85981 6.84342 12.3489
6 0.433217 2.76966 4.01683
6 6.75086 3.60844 0.219738
6 4.04959 6.45439 19.0316
6 0.737586 9.06485 15.3896
6 5.30243 5.88941 16.0116
6 1.12403 10.8375 9.44623
6 10.4422 5.53773 9.88846
6 8.0945 1.89775 12.5735
6 0.489396 8.63853 9.23196
6 10.0344 8.23503 5.24829
6 5.56336 5.96959 1.53476
6 8.95013 3.67469 17.7185
6 0.767077 2.30787 8.91163
6 9.14117 7.25754 0.244615
6 10.9075 0.145567 19.0222
6 8.58168 3.92411 1.20645
6 5.05837 0.00610842 18.6573
6 2.2757 5.08075 19.1955
6 1.48698 8.66401 3.09308
6 6.2578 9.25805 15.8803
6 2.73987 8.46817 5.28084
6 6.77964 0.221795 16.4311
6 7.5685 0.10095 4.57597
96
Atoms. Timestep: 800
1 5.37141 7.80698 13.8379
1 8.43569 10.8013 8.81348
1 4.21836 1.86532 4.5014
1 3.16332 5.59062 8.81988
1 8.97472 4.65647 11.6649
1 6.30914 0.809173 6.18091
1 0.0948952 1.07349 3.62906
1 8.70692 7.23055 4.09181
1 1.50464 4.89299 3.93452
1 10.1452 5.95955 5.76804
2 0.225595 4.00846 11.0563
2 6.93421 0.0851075 11.249
2 4.67501 8.43044 6.60729
2 8.69109 1.83941 9.5119
2 4.32298 4.52294 6.55097
3 4.19438 6.91095 0.602318
3 3.11917 6.32727 2.80619
3 3.08155 6.18634 14.6927
3 8.92608 2.8447 19.6099
3 10.6598 10.2949 0.649045
3 8.83191 5.934 16.9768
3 10.0465 2.78091 12.9823
3 3.88321 1.16568 2.32506
4 7.2398 5.80718 1.24113
5 0.0611007 7.65476 7.53281
5 5.20697 0.810133 12.6053
5 1.99837 2.10374 3.24773
5 7.2107 8.80347 14.5269
5 7.89579 10.5494 15.1422
5 3.00693 7.74594 9.73758
5 7.60766 8.01927 11.0435
5 2.6722 3.7565 11.7573
6 7.81656 1.69573 7.44594
6 2.14439 5.05951 6.80588
6 9.44317 2.18467 4.81391
6 3.45144 2.22068 13.3915
6 6.30432 1.90763 10.9383
6 5.24824 9.95747 10.8327
6 9.57847 4.76921 13.55
6 6.01263 9.96315 6.01407
6 8.97019 5.20257 3.98778
6 9.51711 8.63683 10.618
6 6.88428 6.02483 11.0972
6 9.38775 9.21674 7.56907
6 7.06997 5.99955 3.38751
6 7.461 8.5327 8.61618
6 7.16528 7.16966 12.912
6 0.0660905 11.0108 12.1554
6 3.7417 4.89992 4.30685
6 10.269 7.26213 16.4193
6 4.27386 9.14387 8.6119
6 5.98047 9.8711 13.4252
6 4.17983 9.16686 0.662703
6 8.15054 3.21816 16.3496
6 1.87838 7.30588 16.6883
6 5.48203 6.49976 6.48478
6 1.37811 2.04136 12.0621
6 10.6116 7.93121 0.293508
6 4.4431 5.76757 10.3308
6 0.384975 10.2424 2.55015
6 5.84343 1.7674 2.77318
6 6.84823 4.25565 16.8181
6 0.479383 3.8562 17.9142
6 2.6933 4.37256 14.3931
6 10.8251 1.11057 0.146996
6 4.5891 2.23775 6.43339
6 3.29227 8.31866 13.4198
6 3.28636 0.0620324 4.03147
6 1.17615 5.85316 2.16122
6 2.47077 9.27585 15.1037
6 2.23622 1.61675 1.2264
6 4.77599 0.560393 0.358379
6 2.91772 6.19266 12.2279
6 0.513402 3.18888 3.98703
6 6.93795 2.46378 0.536291
6 3.57282 6.32558 19.0376
6 0.298698 8.9725 14.9601
6 5.40606 5.65119 16.4653
6 0.655092 9.80089 10.5811
6 10.4267 6.01658 10.8712
6 8.19505 1.49163 12.7126
6 1.42484 8.46886 8.6415
6 10.361 8.11316 5.41878
6 5.57357 5.52509 0.288988
6 9.49303 4.25534 18.0349
6 9.62405 3.45283 10.1487
6 8.58215 7.18274 0.661173
6 1.29523 10.9629 19.3642
6 8.4324 4.12348 0.751676
6 5.68403 9.7304 20.0494
6 1.82811 5.56064 0.0207513
6 1.75931 8.14747 3.61388
6 4.83499 10.5801 16.9605
6 3.40821 7.62854 5.06592
6 5.96997 0.0175451 15.5611
6 7.38532 1.52641 4.54234
96
Atoms. Timestep: 900
1 4.98746 7.84282 14.1738
1 7.68566 10.3646 8.00401
1 4.25867 0.977405 4.86575
1 3.15096 5.36309 8.99266
1 8.75452 5.83904 13.4538
1 6.00711 1.06149 6.11745
1 10.8318 0.692159 3.69214
1 8.7875 7.14837 3.20023
1 2.26988 5.48817 4.90881
1 10.7949 5.09024 4.58397
2 0.795169 4.49277 10.916
2 7.28154 0.639333 11.5695
2 4.71022 8.1093 6.91948
2 8.12996 1.86189 9.42065
2 4.15157 4.94785 6.8799
3 4.31055 7.84547 20.1803
3 2.98231 6.19208 2.43721
3 2.97693 6.36267 14.1975
3 9.44962 2.86358 19.3803
3 1.32179 9.5763 1.50227
3 8.25825 6.07758 17.697
3 9.48892 3.0741 12.1594
3 3.60097 0.542858 1.27516
4 7.54822 5.98354 0.775846
5 10.8812 8.37382 6.67149
5 4.72712 0.14322 11.6579
5 2.3842 1.79077 3.87426
5 7.24787 6.68797 15.5225
5 7.69091 0.535105 14.4599
5 4.67599 7.61983 9.8146
5 6.72786 7.79631 10.9037
5 4.22402 4.01392 12.4873
6 7.82355 1.59177 7.31654
6 1.88571 5.27758 6.98992
6 8.98794 2.56261 5.55297
6 4.42219 1.79662 12.7075
6 6.26975 1.29559 9.85145
6 5.93879 9.6596 11.1777
6 9.68939 4.07796 13.8519
6 6.42104 9.86116 6.50724
6 8.69307 5.08672 3.80013
6 9.93524 7.97707 9.66584
6 6.98156 5.48174 10.5188
6 8.89791 8.98669 7.06585
6 7.09408 5.76814 2.92863
6 8.02894 8.47935 9.07395
6 6.88097 6.8993 13.3377
6 10.6706 9.79606 12.9682
6 3.85056 4.88204 3.63533
6 9.17116 7.94905 17.5855
6 3.74388 9.60511 8.83402
6 6.55834 9.78219 13.0674
6 3.05964 9.58956 0.720064
6 8.29564 1.68518 16.0596
6 2.31635 7.27915 16.5161
6 6.07607 6.45584 6.53199
6 0.428216 2.97459 12.8397
6 10.0996 8.48233 0.209267
6 4.3744 5.10949 10.6303
6 10.9941 9.63405 3.26161
6 3.9981 2.56915 3.1361
6 6.30478 5.33506 16.319
6 0.849267 4.60779 17.7171
6 2.59038 4.09621 13.9725
6 0.190955 1.38892 18.7163
6 4.67237 2.48324 6.58383
6 3.9833 8.29745 12.4687
6 3.0777 10.7489 3.80406
6 1.06337 5.89932 3.12476
6 1.3825 10.1755 15.2499
6 1.99683 1.89728 1.8275
6 5.81028 0.194375 0.527258
6 2.25731 5.60094 12.2846
6 0.707314 2.98429 4.57434
6 8.27409 1.34008 20.0514
6 3.00317 6.62895 19.0425
6 10.5798 9.24106 15.1386
6 4.61266 6.54736 15.5797
6 0.267255 8.49488 11.3696
6 10.8049 6.52779 11.8157
6 9.12419 1.10671 12.8648
6 2.13206 8.49594 7.64601
6 10.4255 7.31977 4.63295
6 5.46217 6.11965 0.685471
6 9.95051 4.89776 18.4261
6 8.03385 3.8712 10.9616
6 8.47798 8.27622 1.50127
6 0.985439 0.0418406 20.1376
6 7.77117 3.85215 20.1156
6 5.86402 9.0718 0.72205
6 2.03323 5.79686 20.3869
6 2.26636 7.92156 3.5485
6 3.93784 1.40782 17.6575
6 4.84797 8.43688 4.57061
6 5.01757 0.427608 16.3008
6 7.3357 2.27423 4.57697
96
Atoms. Timestep: 1000
1 5.7112 7.94472 13.8567
1 7.30993 9.77671 7.33355
1 4.45258 1.09779 4.8692
1 3.03167 5.27098 9.25816
1 9.0706 6.7006 14.8661
1 6.67884 1.41919 6.46715
1 10.8078 1.0223 3.93089
1 9.13013 6.29027 2.56901
1 3.44081 6.05216 4.84158
1 10.6404 3.85296 3.53977
2 0.509545 4.76677 10.8094
2 6.54795 0.483799 11.6184
2 4.6723 8.10652 6.68049
2 7.61148 1.78765 9.93271
2 4.24746 4.5262 6.47713
3 3.96584 8.0995 19.6667
3 3.12897 5.86669 2.36345
3 2.41498 6.91375 13.6156
3 9.54643 3.04336 18.6921
3 1.6944 9.55936 3.14773
3 8.30914 6.25024 18.1337
3 9.15996 3.29104 12.1596
3 3.48868 0.152382 1.3599
4 7.08235 5.88716 0.704487
5 0.356076 8.76015 6.3539
5 4.56017 10.5223 10.9166
5 2.02175 1.51908 4.12753
5 6.75686 5.7389 15.4692
5 7.5522 1.7314 14.2476
5 5.3971 7.81272 9.1773
5 6.3829 7.22117 11.8909
5 5.12746 3.8733 12.7625
6 7.97738 1.48978 7.88642
6 2.44091 5.30045 6.97177
6 8.71029 2.4907 5.43606
6 5.43847 2.04063 12.6371
6 6.17612 0.30445 9.42983
6 6.52851 9.11728 10.731
6 8.18146 4.62508 14.7222
6 5.12382 10.9558 6.39952
6 8.75347 4.84724 4.24588
6 10.1805 7.29621 8.05708
6 6.06299 5.96024 9.24201
6 9.12919 9.17232 6.50587
6 7.26533 5.04994 2.63668
6 8.78278 8.73962 8.56953
6 7.45064 6.40616 13.4522
6 10.3242 9.13339 12.6386
6 4.6249 5.1723 3.37653
6 8.54574 7.47765 19.9802
6 2.92829 8.39661 8.78308
6 6.9697 10.342 13.9378
6 2.12279 9.81881 0.0950833
6 8.24069 0.155438 15.9594
6 2.70417 6.55878 16.0719
6 5.50575 6.01467 7.47138
6 0.121362 3.12863 12.3687
6 10.4249 8.89902 0.0417458
6 4.70381 4.27801 10.4321
6 10.6925 10.4186 2.84043
6 3.7493 2.26413 3.21257
6 5.26215 4.90902 17.7212
6 0.931425 5.0682 17.7736
6 3.79645 4.70325 14.3633
6 0.727161 1.4686 17.9446
6 4.38657 2.74386 6.22763
6 4.23232 7.7099 12.3922
6 3.16013 10.8619 3.97248
6 1.43372 5.32219 3.94753
6 10.3431 0.375166 15.8456
6 2.33258 1.76477 1.58164
6 5.56757 0.157832 1.14839
6 2.71889 5.34223 11.8132
6 0.000451304 2.67569 5.41905
6 9.06147 0.854302 18.9967
6 2.73826 8.12324 17.8532
6 10.461 9.57426 16.95
6 5.52155 7.17319 16.1625
6 0.80432 7.56688 12.5139
6 10.2036 6.49129 12.5382
6 9.48342 1.21988 12.0314
6 2.39665 8.63056 5.9836
6 9.82812 6.74333 4.41568
6 5.67839 7.23762 0.282554
6 9.94144 4.8882 18.2475
6 7.21971 3.61222 11.1978
6 8.72259 8.39772 1.9355
6 10.7211 1.28864 19.8743
6 8.52998 4.83952 19.7679
6 5.9055 9.11717 1.41724
6 2.08078 5.56361 0.100197
6 3.48163 7.96349 2.94188
6 3.43131 3.07996 17.8639
6 5.74895 8.8255 5.13083
6 4.09974 1.17238 17.4994
6 7.1186 1.99766 4.41057
96
Atoms. Timestep: 1100
1 6.82511 7.80331 14.9858
1 7.6065 9.78161 6.70491
1 5.20676 1.01032 4.49466
1 3.04409 5.30511 8.76505
1 8.46233 5.94727 15.5895
1 6.36414 1.63088 6.73925
1 9.98728 1.18815 4.25985
1 8.9379 5.86044 2.61223
1 3.1883 6.60309 4.7898
1 0.0852042 3.39517 3.65805
2 0.484328 5.08995 10.9218
2 7.05739 10.6078 11.1084
2 3.89094 8.24995 6.75433
2 7.15963 1.94373 9.99398
2 4.53369 4.78369 6.13595
3 2.67783 8.41521 19.0199
3 2.91866 5.40303 2.52591
3 3.26598 6.41391 13.1794
3 9.47191 3.41063 17.8603
3 1.83284 9.74477 4.12169
3 8.53268 6.00467 19.1287
3 9.09629 3.63153 12.9517
3 2.86642 10.4219 2.17721
4 7.00695 5.98143 0.00543317
5 0.499836 8.88423 5.91825
5 4.30348 9.48728 10.148
5 1.84563 1.53958 3.20733
5 5.29127 5.65346 16.2242
5 7.57019 2.06474 14.6886
5 5.29003 8.48568 8.47259
5 6.08367 6.76872 12.2281
5 4.98623 4.5031 12.3386
6 8.87774 1.08333 8.9527
6 2.65984 5.62201 6.76379
6 8.22317 1.50837 5.08298
6 5.90234 1.83855 13.4326
6 5.5033 0.636311 10.0414
6 6.60073 8.37057 10.4336
6 8.81199 3.79715 14.9403
6 5.74149 10.5837 7.07865
6 9.54584 4.67453 4.12794
6 10.3239 6.79823 6.52385
6 5.84006 5.20772 10.2904
6 9.64635 10.5641 5.73956
6 7.40331 4.59832 1.5133
6 9.37808 9.10655 7.16505
6 8.28283 7.16337 13.508
6 10.7005 7.95241 12.4793
6 4.63982 5.58745 3.94614
6 8.31621 7.84175 20.0455
6 4.07845 6.97947 8.57516
6 5.60943 9.8941 13.7093
6 2.6209 9.66492 0.355977
6 7.38534 10.6094 15.0845
6 2.30081 7.26326 16.0984
6 5.92917 6.68722 6.3015
6 10.6148 2.92714 11.5962
6 9.75456 8.81339 0.137097
6 4.19449 3.94296 9.96174
6 0.456104 0.109055 3.13952
6 3.86639 2.57626 2.85304
6 5.64143 5.67325 19.0489
6 1.84334 5.60805 17.7847
6 5.02031 5.47387 14.1719
6 0.332695 3.08644 18.4589
6 4.63858 2.88987 7.266
6 5.01132 8.22645 13.4878
6 3.94356 10.4889 3.86712
6 2.04081 4.11599 3.91333
6 9.41783 0.869558 16.441
6 2.41138 2.08135 1.27526
6 4.84389 0.027376 1.27077
6 2.47867 5.39176 11.7747
6 0.594394 2.01181 5.42383
6 8.36144 0.850042 18.2361
6 3.74754 8.20072 17.1011
6 10.3784 10.5726 18.4509
6 6.01734 8.35791 17.1953
6 1.06374 8.1542 13.7434
6 9.42932 5.9659 12.3707
6 8.47098 0.449036 12.089
6 2.19559 8.27612 5.55235
6 10.081 6.79199 4.46185
6 4.58761 7.333 19.5307
6 9.96566 5.50856 16.7358
6 7.26954 3.54514 11.6467
6 10.4947 7.64966 2.73519
6 0.137971 2.35732 20.2107
6 7.8743 3.96209 19.065
6 6.07203 9.58228 1.81564
6 3.05326 5.84312 0.282664
6 2.78357 7.64378 2.56835
6 3.23009 4.46183 17.8741
6 5.93002 8.12817 4.82526
6 3.04372 2.63806 18.9634
6 7.36524 1.12481 3.4603
96
Atoms. Timestep: 1200